# vtk DataFile Version 2.0
output.vtk
ASCII
DATASET UNSTRUCTURED_GRID
POINTS 200 FLOAT
0.000000 0.000000 0.000000
1.000000 0.000000 0.000000
2.000000 0.000000 0.000000
3.000000 0.000000 0.000000
4.000000 0.000000 0.000000
5.000000 0.000000 0.000000
6.000000 0.000000 0.000000
7.000000 0.000000 0.000000
8.000000 0.000000 0.000000
9.000000 0.000000 0.000000
0.000000 1.000000 0.000000
1.000000 1.000000 0.000000
2.000000 1.000000 0.000000
3.000000 1.000000 0.000000
4.000000 1.000000 0.000000
5.000000 1.000000 0.000000
6.000000 1.000000 0.000000
7.000000 1.000000 0.000000
8.000000 1.000000 0.000000
9.000000 1.000000 0.000000
0.000000 2.000000 0.000000
1.000000 2.000000 0.000000
2.000000 2.000000 0.000000
3.000000 2.000000 0.000000
4.000000 2.000000 0.000000
5.000000 2.000000 0.000000
6.000000 2.000000 0.000000
7.000000 2.000000 0.000000
8.000000 2.000000 0.000000
9.000000 2.000000 0.000000
0.000000 3.000000 0.000000
1.000000 3.000000 0.000000
2.000000 3.000000 0.000000
3.000000 3.000000 0.000000
4.000000 3.000000 0.000000
5.000000 3.000000 0.000000
6.000000 3.000000 0.000000
7.000000 3.000000 0.000000
8.000000 3.000000 0.000000
9.000000 3.000000 0.000000
0.000000 4.000000 0.000000
1.000000 4.000000 0.000000
2.000000 4.000000 0.000000
3.000000 4.000000 0.000000
4.000000 4.000000 0.000000
5.000000 4.000000 0.000000
6.000000 4.000000 0.000000
7.000000 4.000000 0.000000
8.000000 4.000000 0.000000
9.000000 4.000000 0.000000
0.000000 5.000000 0.000000
1.000000 5.000000 0.000000
2.000000 5.000000 0.000000
3.000000 5.000000 0.000000
4.000000 5.000000 0.000000
5.000000 5.000000 0.000000
6.000000 5.000000 0.000000
7.000000 5.000000 0.000000
8.000000 5.000000 0.000000
9.000000 5.000000 0.000000
0.000000 6.000000 0.000000
1.000000 6.000000 0.000000
2.000000 6.000000 0.000000
3.000000 6.000000 0.000000
4.000000 6.000000 0.000000
5.000000 6.000000 0.000000
6.000000 6.000000 0.000000
7.000000 6.000000 0.000000
8.000000 6.000000 0.000000
9.000000 6.000000 0.000000
0.000000 7.000000 0.000000
1.000000 7.000000 0.000000
2.000000 7.000000 0.000000
3.000000 7.000000 0.000000
4.000000 7.000000 0.000000
5.000000 7.000000 0.000000
6.000000 7.000000 0.000000
7.000000 7.000000 0.000000
8.000000 7.000000 0.000000
9.000000 7.000000 0.000000
0.000000 8.000000 0.000000
1.000000 8.000000 0.000000
2.000000 8.000000 0.000000
3.000000 8.000000 0.000000
4.000000 8.000000 0.000000
5.000000 8.000000 0.000000
6.000000 8.000000 0.000000
7.000000 8.000000 0.000000
8.000000 8.000000 0.000000
9.000000 8.000000 0.000000
0.000000 9.000000 0.000000
1.000000 9.000000 0.000000
2.000000 9.000000 0.000000
3.000000 9.000000 0.000000
4.000000 9.000000 0.000000
5.000000 9.000000 0.000000
6.000000 9.000000 0.000000
7.000000 9.000000 0.000000
8.000000 9.000000 0.000000
9.000000 9.000000 0.000000
0.000000 10.000000 0.000000
1.000000 10.000000 0.000000
2.000000 10.000000 0.000000
3.000000 10.000000 0.000000
4.000000 10.000000 0.000000
5.000000 10.000000 0.000000
6.000000 10.000000 0.000000
7.000000 10.000000 0.000000
8.000000 10.000000 0.000000
9.000000 10.000000 0.000000
0.000000 11.000000 0.000000
1.000000 11.000000 0.000000
2.000000 11.000000 0.000000
3.000000 11.000000 0.000000
4.000000 11.000000 0.000000
5.000000 11.000000 0.000000
6.000000 11.000000 0.000000
7.000000 11.000000 0.000000
8.000000 11.000000 0.000000
9.000000 11.000000 0.000000
0.000000 12.000000 0.000000
1.000000 12.000000 0.000000
2.000000 12.000000 0.000000
3.000000 12.000000 0.000000
4.000000 12.000000 0.000000
5.000000 12.000000 0.000000
6.000000 12.000000 0.000000
7.000000 12.000000 0.000000
8.000000 12.000000 0.000000
9.000000 12.000000 0.000000
0.000000 13.000000 0.000000
1.000000 13.000000 0.000000
2.000000 13.000000 0.000000
3.000000 13.000000 0.000000
4.000000 13.000000 0.000000
5.000000 13.000000 0.000000
6.000000 13.000000 0.000000
7.000000 13.000000 0.000000
8.000000 13.000000 0.000000
9.000000 13.000000 0.000000
0.000000 14.000000 0.000000
1.000000 14.000000 0.000000
2.000000 14.000000 0.000000
3.000000 14.000000 0.000000
4.000000 14.000000 0.000000
5.000000 14.000000 0.000000
6.000000 14.000000 0.000000
7.000000 14.000000 0.000000
8.000000 14.000000 0.000000
9.000000 14.000000 0.000000
0.000000 15.000000 0.000000
1.000000 15.000000 0.000000
2.000000 15.000000 0.000000
3.000000 15.000000 0.000000
4.000000 15.000000 0.000000
5.000000 15.000000 0.000000
6.000000 15.000000 0.000000
7.000000 15.000000 0.000000
8.000000 15.000000 0.000000
9.000000 15.000000 0.000000
0.000000 16.000000 0.000000
1.000000 16.000000 0.000000
2.000000 16.000000 0.000000
3.000000 16.000000 0.000000
4.000000 16.000000 0.000000
5.000000 16.000000 0.000000
6.000000 16.000000 0.000000
7.000000 16.000000 0.000000
8.000000 16.000000 0.000000
9.000000 16.000000 0.000000
0.000000 17.000000 0.000000
1.000000 17.000000 0.000000
2.000000 17.000000 0.000000
3.000000 17.000000 0.000000
4.000000 17.000000 0.000000
5.000000 17.000000 0.000000
6.000000 17.000000 0.000000
7.000000 17.000000 0.000000
8.000000 17.000000 0.000000
9.000000 17.000000 0.000000
0.000000 18.000000 0.000000
1.000000 18.000000 0.000000
2.000000 18.000000 0.000000
3.000000 18.000000 0.000000
4.000000 18.000000 0.000000
5.000000 18.000000 0.000000
6.000000 18.000000 0.000000
7.000000 18.000000 0.000000
8.000000 18.000000 0.000000
9.000000 18.000000 0.000000
0.000000 19.000000 0.000000
1.000000 19.000000 0.000000
2.000000 19.000000 0.000000
3.000000 19.000000 0.000000
4.000000 19.000000 0.000000
5.000000 19.000000 0.000000
6.000000 19.000000 0.000000
7.000000 19.000000 0.000000
8.000000 19.000000 0.000000
9.000000 19.000000 0.000000
CELLS 171 855
4 0 1 11 10
4 1 2 12 11
4 2 3 13 12
4 3 4 14 13
4 4 5 15 14
4 5 6 16 15
4 6 7 17 16
4 7 8 18 17
4 8 9 19 18
4 10 11 21 20
4 11 12 22 21
4 12 13 23 22
4 13 14 24 23
4 14 15 25 24
4 15 16 26 25
4 16 17 27 26
4 17 18 28 27
4 18 19 29 28
4 20 21 31 30
4 21 22 32 31
4 22 23 33 32
4 23 24 34 33
4 24 25 35 34
4 25 26 36 35
4 26 27 37 36
4 27 28 38 37
4 28 29 39 38
4 30 31 41 40
4 31 32 42 41
4 32 33 43 42
4 33 34 44 43
4 34 35 45 44
4 35 36 46 45
4 36 37 47 46
4 37 38 48 47
4 38 39 49 48
4 40 41 51 50
4 41 42 52 51
4 42 43 53 52
4 43 44 54 53
4 44 45 55 54
4 45 46 56 55
4 46 47 57 56
4 47 48 58 57
4 48 49 59 58
4 50 51 61 60
4 51 52 62 61
4 52 53 63 62
4 53 54 64 63
4 54 55 65 64
4 55 56 66 65
4 56 57 67 66
4 57 58 68 67
4 58 59 69 68
4 60 61 71 70
4 61 62 72 71
4 62 63 73 72
4 63 64 74 73
4 64 65 75 74
4 65 66 76 75
4 66 67 77 76
4 67 68 78 77
4 68 69 79 78
4 70 71 81 80
4 71 72 82 81
4 72 73 83 82
4 73 74 84 83
4 74 75 85 84
4 75 76 86 85
4 76 77 87 86
4 77 78 88 87
4 78 79 89 88
4 80 81 91 90
4 81 82 92 91
4 82 83 93 92
4 83 84 94 93
4 84 85 95 94
4 85 86 96 95
4 86 87 97 96
4 87 88 98 97
4 88 89 99 98
4 90 91 101 100
4 91 92 102 101
4 92 93 103 102
4 93 94 104 103
4 94 95 105 104
4 95 96 106 105
4 96 97 107 106
4 97 98 108 107
4 98 99 109 108
4 100 101 111 110
4 101 102 112 111
4 102 103 113 112
4 103 104 114 113
4 104 105 115 114
4 105 106 116 115
4 106 107 117 116
4 107 108 118 117
4 108 109 119 118
4 110 111 121 120
4 111 112 122 121
4 112 113 123 122
4 113 114 124 123
4 114 115 125 124
4 115 116 126 125
4 116 117 127 126
4 117 118 128 127
4 118 119 129 128
4 120 121 131 130
4 121 122 132 131
4 122 123 133 132
4 123 124 134 133
4 124 125 135 134
4 125 126 136 135
4 126 127 137 136
4 127 128 138 137
4 128 129 139 138
4 130 131 141 140
4 131 132 142 141
4 132 133 143 142
4 133 134 144 143
4 134 135 145 144
4 135 136 146 145
4 136 137 147 146
4 137 138 148 147
4 138 139 149 148
4 140 141 151 150
4 141 142 152 151
4 142 143 153 152
4 143 144 154 153
4 144 145 155 154
4 145 146 156 155
4 146 147 157 156
4 147 148 158 157
4 148 149 159 158
4 150 151 161 160
4 151 152 162 161
4 152 153 163 162
4 153 154 164 163
4 154 155 165 164
4 155 156 166 165
4 156 157 167 166
4 157 158 168 167
4 158 159 169 168
4 160 161 171 170
4 161 162 172 171
4 162 163 173 172
4 163 164 174 173
4 164 165 175 174
4 165 166 176 175
4 166 167 177 176
4 167 168 178 177
4 168 169 179 178
4 170 171 181 180
4 171 172 182 181
4 172 173 183 182
4 173 174 184 183
4 174 175 185 184
4 175 176 186 185
4 176 177 187 186
4 177 178 188 187
4 178 179 189 188
4 180 181 191 190
4 181 182 192 191
4 182 183 193 192
4 183 184 194 193
4 184 185 195 194
4 185 186 196 195
4 186 187 197 196
4 187 188 198 197
4 188 189 199 198
CELL_TYPES 171
9
9
9
9
9
9
9
9
9
9
9
9
9
9
9
9
9
9
9
9
9
9
9
9
9
9
9
9
9
9
9
9
9
9
9
9
9
9
9
9
9
9
9
9
9
9
9
9
9
9
9
9
9
9
9
9
9
9
9
9
9
9
9
9
9
9
9
9
9
9
9
9
9
9
9
9
9
9
9
9
9
9
9
9
9
9
9
9
9
9
9
9
9
9
9
9
9
9
9
9
9
9
9
9
9
9
9
9
9
9
9
9
9
9
9
9
9
9
9
9
9
9
9
9
9
9
9
9
9
9
9
9
9
9
9
9
9
9
9
9
9
9
9
9
9
9
9
9
9
9
9
9
9
9
9
9
9
9
9
9
9
9
9
9
9
9
9
9
9
9
9
POINT_DATA 200
VECTORS velocity FLOAT
0.000000 0.000000 0.000000
0.000000 0.000000 0.000000
0.000000 0.000000 0.000000
0.000000 0.000000 0.000000
0.000000 0.000000 0.000000
0.000000 0.000000 0.000000
0.000000 0.000000 0.000000
0.000000 0.000000 0.000000
0.000000 0.000000 0.000000
0.000000 0.000000 0.000000
0.000000 0.000000 0.000000
0.000000 0.000000 0.000000
0.000000 0.000000 0.000000
0.000000 0.000000 0.000000
0.000000 0.000000 0.000000
0.000000 0.000000 0.000000
0.000000 0.000000 0.000000
0.000000 0.000000 0.000000
0.000000 0.000000 0.000000
0.000000 0.000000 0.000000
0.000000 0.000000 0.000000
1.000000 1.000000 0.000000
1.414214 2.000000 0.000000
1.732051 3.000000 0.000000
2.000000 4.000000 0.000000
2.236068 5.000000 0.000000
2.449490 6.000000 0.000000
2.645751 7.000000 0.000000
2.828427 8.000000 0.000000
3.000000 9.000000 0.000000
3.162278 10.000000 0.000000
3.316625 11.000000 0.000000
3.464102 12.000000 0.000000
3.605551 13.000000 0.000000
3.741657 14.000000 0.000000
3.872983 15.000000 0.000000
4.000000 16.000000 0.000000
4.123106 17.000000 0.000000
4.242641 18.000000 0.000000
4.358899 19.000000 0.000000
0.000000 0.000000 0.000000
1.414214 2.000000 0.000000
2.000000 4.000000 0.000000
2.449490 6.000000 0.000000
2.828427 8.000000 0.000000
3.162278 10.000000 0.000000
3.464102 12.000000 0.000000
3.741657 14.000000 0.000000
4.000000 16.000000 0.000000
4.242641 18.000000 0.000000
4.472136 20.000000 0.000000
4.690416 22.000000 0.000000
4.898979 24.000000 0.000000
5.099020 26.000000 0.000000
5.291503 28.000000 0.000000
5.477226 30.000000 0.000000
5.656854 32.000000 0.000000
5.830952 34.000000 0.000000
6.000000 36.000000 0.000000
6.164414 38.000000 0.000000
0.000000 0.000000 0.000000
1.732051 3.000000 0.000000
2.449490 6.000000 0.000000
3.000000 9.000000 0.000000
3.464102 12.000000 0.000000
3.872983 15.000000 0.000000
4.242641 18.000000 0.000000
4.582576 21.000000 0.000000
4.898979 24.000000 0.000000
5.196152 27.000000 0.000000
5.477226 30.000000 0.000000
5.744563 33.000000 0.000000
6.000000 36.000000 0.000000
6.244998 39.000000 0.000000
6.480741 42.000000 0.000000
6.708204 45.000000 0.000000
6.928203 48.000000 0.000000
7.141428 51.000000 0.000000
7.348469 54.000000 0.000000
7.549834 57.000000 0.000000
0.000000 0.000000 0.000000
2.000000 4.000000 0.000000
2.828427 8.000000 0.000000
3.464102 12.000000 0.000000
4.000000 16.000000 0.000000
4.472136 20.000000 0.000000
4.898979 24.000000 0.000000
5.291503 28.000000 0.000000
5.656854 32.000000 0.000000
6.000000 36.000000 0.000000
6.324555 40.000000 0.000000
6.633250 44.000000 0.000000
6.928203 48.000000 0.000000
7.211103 52.000000 0.000000
7.483315 56.000000 0.000000
7.745967 60.000000 0.000000
8.000000 64.000000 0.000000
8.246211 68.000000 0.000000
8.485281 72.000000 0.000000
8.717798 76.000000 0.000000
0.000000 0.000000 0.000000
2.236068 5.000000 0.000000
3.162278 10.000000 0.000000
3.872983 15.000000 0.000000
4.472136 20.000000 0.000000
5.000000 25.000000 0.000000
5.477226 30.000000 0.000000
5.916080 35.000000 0.000000
6.324555 40.000000 0.000000
6.708204 45.000000 0.000000
7.071068 50.000000 0.000000
7.416198 55.000000 0.000000
7.745967 60.000000 0.000000
8.062258 65.000000 0.000000
8.366600 70.000000 0.000000
8.660254 75.000000 0.000000
8.944272 80.000000 0.000000
9.219544 85.000000 0.000000
9.486833 90.000000 0.000000
9.746794 95.000000 0.000000
0.000000 0.000000 0.000000
2.449490 6.000000 0.000000
3.464102 12.000000 0.000000
4.242641 18.000000 0.000000
4.898979 24.000000 0.000000
5.477226 30.000000 0.000000
6.000000 36.000000 0.000000
6.480741 42.000000 0.000000
6.928203 48.000000 0.000000
7.348469 54.000000 0.000000
7.745967 60.000000 0.000000
8.124038 66.000000 0.000000
8.485281 72.000000 0.000000
8.831761 78.000000 0.000000
9.165151 84.000000 0.000000
9.486833 90.000000 0.000000
9.797959 96.000000 0.000000
10.099505 102.000000 0.000000
10.392305 108.000000 0.000000
10.677078 114.000000 0.000000
0.000000 0.000000 0.000000
2.645751 7.000000 0.000000
3.741657 14.000000 0.000000
4.582576 21.000000 0.000000
5.291503 28.000000 0.000000
5.916080 35.000000 0.000000
6.480741 42.000000 0.000000
7.000000 49.000000 0.000000
7.483315 56.000000 0.000000
7.937254 63.000000 0.000000
8.366600 70.000000 0.000000
8.774964 77.000000 0.000000
9.165151 84.000000 0.000000
9.539392 91.000000 0.000000
9.899495 98.000000 0.000000
10.246951 105.000000 0.000000
10.583005 112.000000 0.000000
10.908712 119.000000 0.000000
11.224972 126.000000 0.000000
11.532563 133.000000 0.000000
0.000000 0.000000 0.000000
2.828427 8.000000 0.000000
4.000000 16.000000 0.000000
4.898979 24.000000 0.000000
5.656854 32.000000 0.000000
6.324555 40.000000 0.000000
6.928203 48.000000 0.000000
7.483315 56.000000 0.000000
8.000000 64.000000 0.000000
8.485281 72.000000 0.000000
8.944272 80.000000 0.000000
9.380832 88.000000 0.000000
9.797959 96.000000 0.000000
10.198039 104.000000 0.000000
10.583005 112.000000 0.000000
10.954451 120.000000 0.000000
11.313708 128.000000 0.000000
11.661904 136.000000 0.000000
12.000000 144.000000 0.000000
12.328828 152.000000 0.000000
0.000000 0.000000 0.000000
3.000000 9.000000 0.000000
4.242641 18.000000 0.000000
5.196152 27.000000 0.000000
6.000000 36.000000 0.000000
6.708204 45.000000 0.000000
7.348469 54.000000 0.000000
7.937254 63.000000 0.000000
8.485281 72.000000 0.000000
9.000000 81.000000 0.000000
9.486833 90.000000 0.000000
9.949874 99.000000 0.000000
10.392305 108.000000 0.000000
10.816654 117.000000 0.000000
11.224972 126.000000 0.000000
11.618950 135.000000 0.000000
12.000000 144.000000 0.000000
12.369317 153.000000 0.000000
12.727922 162.000000 0.000000
13.076697 171.000000 0.000000
